TITLE     = "3D MHD, Earth Magnetosphere Body"
VARIABLES = "X"
"Y"
"Z"
"R"
"`r"
"U_x"
"U_y"
"U_z"
"P"
"B1_x"
"B1_y"
"B1_z"
"B_x"
"B_y"
"B_z"
"~Q~7B"
"J_x"
"J_y"
"J_z"
"J_|_|"
"J_`^_x"
"J_`^_y"
"J_`^_z"
ZONE T="Body Surface"
 N=158, E=312,F=FEPOINT ET=Triangle
 -1.198754981E-01  1.198754981E-01  1.020900011E+00  1.034880042E+00  1.010728002E+00 -8.617074788E-02  4.394249991E-03  9.403622709E-03  1.165552998E+01  9.226550907E-02 -5.309635890E-04  6.629088894E-03  1.478961060E+03 -1.478869019E+03 -8.280585938E+03 -3.099228023E-03  2.507629106E-03  1.746495068E-02  3.450445947E-04  2.054633107E-03  7.000552723E-04  1.740675047E-02 -7.880689227E-04
 -3.596265912E-01  0.000000000E+00  1.000000000E+00  1.062700033E+00  1.013800979E+00 -9.079481661E-02 -2.276926971E-04  3.141466901E-02  1.090808010E+01  8.514223993E-02 -4.644101864E-05 -1.953274012E-02  3.806050049E+03 -4.644101864E-05 -6.599178223E+03 -1.797865033E-01  2.845444942E-05  1.197141968E-02  1.403601982E-05  1.280291963E-05  1.604313911E-05  1.178751979E-02  1.779719969E-05
  0.000000000E+00  3.596265912E-01  1.000000000E+00  1.062700033E+00  1.010486007E+00 -8.549831808E-02  1.244216040E-02  7.600883022E-03  1.254963970E+01  8.898676932E-02 -1.346047968E-03  1.715986058E-02  8.898676932E-02 -3.805966064E+03 -6.599141113E+03  1.224000975E-01  7.116963156E-03  1.725034975E-02  9.612645954E-04  5.871696863E-03  1.959487097E-03  1.726792939E-02 -2.299060114E-03
  0.000000000E+00  0.000000000E+00  1.062700033E+00  1.062700033E+00  1.007339001E+00 -8.144222200E-02  2.947392932E-04 -1.477761008E-02  1.148003960E+01  1.047125012E-01 -1.354130945E-04  2.533319965E-02  1.047125012E-01 -1.354130945E-04 -7.967858887E+03  5.815215036E-02 -4.131712922E-05  2.429530025E-02  3.760784011E-06 -6.960956671E-05  1.150858043E-05  2.429681085E-02  5.568332926E-05
 -1.020900011E+00  1.198754981E-01  1.198754981E-01  1.034880042E+00  1.007632017E+00 -2.900551073E-02  2.268106909E-03 -8.024278097E-03  2.281587982E+01  1.206845045E-02 -1.351354003E-04 -4.791292921E-02  1.478880981E+03 -1.736510010E+02  4.140248047E+03 -7.560569048E-02  1.765353023E-03  5.096435081E-03  1.192603013E-04 -1.244727027E-04  2.026882023E-03  5.022036843E-03  2.384925028E-05
 -1.062700033E+00  0.000000000E+00  0.000000000E+00  1.062700033E+00  1.011698961E+00 -4.405053798E-03 -8.287558558E-06  8.516862872E-04  2.515023041E+01 -3.223050953E-05 -1.687837939E-04 -5.796895921E-02 -3.223050953E-05 -1.687837939E-04  3.983884033E+03 -1.320418960E-04 -1.067740982E-06 -5.759962834E-03  6.805671001E-05 -7.619013923E-05 -3.407627105E-07 -5.725032184E-03  3.776902986E-06
 -1.000000000E+00  3.596265912E-01  0.000000000E+00  1.062700033E+00  1.005753994E+00 -3.825080022E-02  6.468404084E-03 -1.466842019E-03  2.184489059E+01  2.406381973E-04 -1.472081931E-04 -4.370370880E-02  2.406381973E-04 -1.472081931E-04  3.983898926E+03  4.064039094E-04  5.081446841E-03  9.674531408E-03  2.126595064E-04 -1.871507993E-04  5.756327882E-03  9.558690712E-03  7.196394290E-05
 -1.000000000E+00  0.000000000E+00  3.596265912E-01  1.062700033E+00  1.006111026E+00 -4.031886905E-02 -2.980268982E-05 -2.199937962E-02  2.183605957E+01  3.400881961E-02 -9.494242840E-05 -4.371830076E-02  3.805999023E+03 -9.494242840E-05  2.615173096E+03 -2.146912962E-01 -7.453987928E-05  9.591053240E-03  6.865218165E-05 -1.021444987E-04 -8.408403119E-06  9.466730058E-03 -7.490933058E-06
 -5.977680087E-01  5.977680087E-01  5.977680087E-01  1.035364985E+00  9.937607050E-01 -4.551878944E-02  1.110928040E-02 -1.346370019E-02  1.646656990E+01  4.993119091E-02 -1.352921966E-02 -2.995489910E-02  4.307945801E+03 -4.307909180E+03 -2.995489910E-02 -1.717642993E-01 -5.744277965E-03  7.258140948E-03  1.048451010E-02 -9.493810125E-03  1.422039000E-03  4.699981771E-03  4.495569039E-03
 -7.933040261E-01  5.000000000E-01  5.000000000E-01  1.062700033E+00  9.886742830E-01 -4.948176816E-02  1.186596043E-02 -2.494679019E-02  1.945173073E+01  4.871759936E-02 -1.466736011E-02 -3.879161179E-02  4.197856934E+03 -2.645790039E+03  1.338128052E+03 -2.126545012E-01 -5.245280918E-03  9.256891906E-03  9.082575329E-03 -1.105266996E-02  3.019257914E-03  6.296218839E-03  2.492026892E-03
 -5.000000000E-01  7.933040261E-01  5.000000000E-01  1.062700033E+00  9.975941777E-01 -2.696716040E-02  5.193744786E-03 -1.927028969E-02  1.384130955E+01  3.751504049E-02 -1.284043957E-02 -2.019572072E-02  2.645812988E+03 -4.197820801E+03  1.338146973E+03 -1.010653973E-01 -3.327148966E-03  4.510490224E-03  1.380548999E-02 -5.509708077E-03  1.657733956E-04  2.496520057E-03  8.134178817E-03
 -5.000000000E-01  5.000000000E-01  7.933040261E-01  1.062700033E+00  9.950135946E-01 -6.010743976E-02  1.626811922E-02  3.825966036E-03  1.610664940E+01  6.356093287E-02 -1.307987981E-02 -3.087737039E-02  4.197872070E+03 -4.197820801E+03 -2.676364990E+03 -2.015729994E-01 -8.660405874E-03  8.007040247E-03  8.565470576E-03 -1.191904955E-02  1.081087044E-03  5.307205953E-03  2.860500012E-03
 -2.335366011E-01  6.851354241E-01  6.851354241E-01  9.966745973E-01  1.001114011E+00 -4.510851949E-02  4.033215810E-03 -9.940585122E-03  1.307291985E+01  4.787008837E-02 -5.741017871E-03 -2.216276014E-03  2.333670898E+03 -6.846246094E+03 -2.016933960E+03 -2.189270966E-02  3.144206945E-03  1.069200970E-02  1.198417041E-02  3.470092081E-03  1.459188992E-03  9.060411714E-03  3.594696056E-03
  0.000000000E+00  9.377266765E-01  5.000000000E-01  1.062700033E+00  1.001690030E+00 -2.771873027E-02 -6.713986862E-03 -2.646946907E-02  1.050914001E+01  3.096272051E-02  4.189595929E-04  1.901956089E-02  3.096272051E-02 -4.962027832E+03  1.338186035E+03  5.311236903E-02  1.140078995E-02  1.322526019E-02  1.746146008E-02  1.747239009E-02  1.390891965E-03  1.269157976E-02  3.854550887E-03
  0.000000000E+00  5.000000000E-01  9.377266765E-01  1.062700033E+00  1.008434057E+00 -6.507749110E-02  3.786033951E-03  2.946725115E-03  1.251609039E+01  6.039807945E-02 -5.068939936E-05  1.482839976E-02  6.039807945E-02 -4.962027832E+03 -5.322095215E+03  1.155574024E-01  9.887743741E-03  1.543598995E-02  7.817925885E-03  9.468751960E-03  2.899395069E-03  1.389706042E-02  2.116279065E-04
 -2.940478921E-01  2.940478921E-01  9.187421203E-01  1.008471966E+00  1.003510952E+00 -7.584340125E-02  7.395536173E-03  1.314728986E-02  1.418727016E+01  7.305558026E-02 -3.934226930E-03 -1.216076966E-02  3.715076904E+03 -3.715008057E+03 -6.945606934E+03 -9.898111224E-02  6.363973953E-04  1.106362045E-02  3.996402025E-03 -5.800735089E-04  1.182183973E-03  9.827573784E-03  4.317766870E-04
 -5.000000000E-01  0.000000000E+00  9.377266765E-01  1.062700033E+00  9.947491288E-01 -8.673696965E-02 -1.657506946E-04  2.524567023E-02  1.772467995E+01  7.285065204E-02 -5.607297135E-05 -3.180830181E-02  4.962101074E+03 -5.607297135E-05 -5.322141113E+03 -2.931891978E-01 -2.709466935E-05  4.441773985E-03  1.289748980E-05 -3.869659122E-05  3.101115908E-06  3.503954038E-03 -9.274401236E-06
 -6.851354241E-01  2.335366011E-01  6.851354241E-01  9.966745973E-01  9.907119870E-01 -6.824312359E-02  6.312870886E-03 -6.029488053E-03  1.872281075E+01  5.986846983E-02 -6.281848066E-03 -3.513671085E-02  6.846299805E+03 -2.333629883E+03 -2.016967041E+03 -2.560439110E-01 -3.162066918E-03  9.820992127E-03  3.998339176E-03 -5.216754042E-03  9.258082137E-04  8.040200919E-03  1.202487969E-03
 -9.377266765E-01  0.000000000E+00  5.000000000E-01  1.062700033E+00  9.848167896E-01 -7.182517648E-02  6.292382022E-05 -2.986707911E-02  2.126989937E+01  5.300784111E-02 -4.563670154E-05 -3.896122053E-02  4.962081055E+03 -4.563670154E-05  1.338128052E+03 -2.992182970E-01 -7.443410868E-05  1.715200953E-02  6.235879846E-05 -1.039917988E-04  2.857525942E-06  1.625094935E-02 -4.971950148E-06
 -9.187421203E-01  2.940478921E-01  2.940478921E-01  1.008471966E+00  9.956616759E-01 -4.949064180E-02  6.023590919E-03 -1.671281084E-02  2.034679031E+01  2.940778993E-02 -4.152835812E-03 -3.844042867E-02  3.715033936E+03 -1.189009033E+03  3.472759033E+03 -1.520897001E-01  1.166990023E-05  1.088884007E-02  2.627637004E-03 -3.191923024E-03  2.986832056E-03  9.640662931E-03  7.115547778E-04
 -9.377266765E-01  5.000000000E-01  0.000000000E+00  1.062700033E+00  9.971175790E-01 -4.722248018E-02  8.471744135E-03 -6.269586156E-04  1.787111092E+01  1.214446020E-04  5.598680946E-05 -2.702152915E-02  1.214446020E-04  5.598680946E-05  3.983915039E+03  2.563729940E-04  3.320235061E-03  9.613823146E-03  1.109416989E-04 -1.277489937E-04  6.142509170E-03  8.446658961E-03  1.321408035E-05
 -2.940478921E-01  9.187421203E-01  2.940478921E-01  1.008471966E+00  1.001484990E+00 -2.195785940E-02 -4.019699059E-03 -1.388106961E-02  1.128409958E+01  1.845834963E-02 -3.447159892E-03 -5.208085058E-04  1.189024048E+03 -3.715008057E+03  3.472797119E+03 -1.253903005E-02  5.836871918E-03  2.221455099E-03  1.018936001E-02  4.697345197E-03 -4.082510131E-04  2.135518007E-03  4.155877978E-03
 -5.000000000E-01  9.377266765E-01  0.000000000E+00  1.062700033E+00  9.975168705E-01 -2.075533941E-02  3.123698058E-03 -1.650453050E-04  1.342140007E+01 -9.234317986E-05 -6.473834947E-05 -1.035202015E-02 -9.234317986E-05 -6.473834947E-05  3.983931885E+03 -1.268151973E-04  4.257005174E-03 -2.565929899E-03  1.526109991E-04 -2.402386017E-04 -1.093256986E-03 -2.270969097E-03  2.429238957E-04
 -3.596265912E-01  1.000000000E+00  0.000000000E+00  1.062700033E+00  1.007338047E+00 -1.573468000E-02 -1.162424032E-02 -6.490977248E-04  8.653206825E+00  4.053019074E-05 -9.917331045E-05  3.204470035E-03  4.053019074E-05 -9.917331045E-05  3.983946045E+03 -3.865424078E-04  1.090505999E-02 -5.287330132E-03 -3.348181053E-05 -3.786887100E-04 -3.252048977E-03 -3.100551898E-03  1.885543024E-04
  0.000000000E+00  1.000000000E+00  3.596265912E-01  1.062700033E+00  1.005576015E+00 -1.566666923E-02 -1.542703994E-02 -1.978922077E-02  8.508441925E+00  1.307439990E-02  5.924109719E-04  1.679911092E-02  1.307439990E-02 -3.805964111E+03  2.615232910E+03  3.500733897E-02  1.111877989E-02 -1.957102941E-04  1.754190959E-02  1.784070022E-02  3.991267877E-04  5.444639246E-04  6.159190089E-03
 -6.851354241E-01  6.851354241E-01  2.335366011E-01  9.966745973E-01  9.954317212E-01 -3.589820862E-02  7.029305212E-03 -1.018352993E-02  1.609715080E+01  1.944386959E-02 -6.202353165E-03 -2.355827950E-02  2.333643066E+03 -2.333629883E+03  4.033841064E+03 -7.067336887E-02  1.486647961E-04  5.038443953E-03  5.231088959E-03 -3.834028961E-03  2.104450949E-03  3.677699016E-03  2.465367084E-03
 -1.198754981E-01  1.020900011E+00  1.198754981E-01  1.034880042E+00  1.008067012E+00 -1.593006961E-02 -1.924234070E-02 -7.108019199E-03  8.218475342E+00  4.606121220E-03  1.615686051E-04  1.183289010E-02  1.736555023E+02 -1.478869019E+03  4.140308105E+03  1.185803954E-02  1.100003999E-02 -3.753822995E-03  6.129018962E-03  6.102079991E-03 -3.276049974E-04 -2.855733968E-03  2.215316053E-03
  0.000000000E+00  1.062700033E+00  0.000000000E+00  1.062700033E+00  1.011919022E+00 -1.647905074E-02 -3.292353824E-02  3.375567903E-04  7.351299763E+00 -6.383066648E-05 -4.197331873E-05  1.621505991E-02 -6.383066648E-05 -4.197331873E-05  3.983958984E+03 -1.190523966E-03  1.097161043E-02 -6.176462863E-03 -1.535964984E-04 -1.894544985E-04  2.302174922E-03 -6.631458178E-03 -7.869664842E-05
  1.198754981E-01  1.198754981E-01  1.020900011E+00  1.034880042E+00  1.008419991E+00 -8.157266676E-02  3.515708959E-03 -5.675700959E-03  1.281709957E+01  9.491333365E-02 -4.775736888E-04  3.239290044E-02 -1.478774048E+03 -1.478869019E+03 -8.280559570E+03  2.055705935E-01  2.437738003E-03  2.108269930E-02  3.156808962E-04  1.999584027E-03  6.870100042E-04  2.118604071E-02 -8.160765865E-04
  3.596265912E-01  0.000000000E+00  1.000000000E+00  1.062700033E+00  1.007256031E+00 -7.775603980E-02 -2.718972042E-03 -1.134580001E-02  1.420195007E+01  9.265065193E-02  1.049568018E-04  5.352576077E-02 -3.805872070E+03  1.049568018E-04 -6.599104980E+03  4.119391143E-01 -1.697356929E-04  2.223028056E-02 -6.923043111E-05 -1.433011930E-04 -2.094955926E-05  2.250446007E-02 -6.162428326E-05
  2.335366011E-01  6.851354241E-01  6.851354241E-01  9.966745973E-01  9.993308783E-01 -4.620267823E-02 -7.291485090E-03 -1.026041992E-02  1.418375969E+01  5.111480132E-02  7.363642100E-03  3.387602046E-02 -2.333572021E+03 -6.846232910E+03 -2.016897949E+03  1.689707935E-01  1.676185057E-02  1.878483966E-02  1.223556977E-02  2.091220953E-02  3.257852048E-03  1.569668949E-02 -2.979994053E-03
  5.000000000E-01  7.933040261E-01  5.000000000E-01  1.062700033E+00  9.941403866E-01 -2.975988947E-02 -1.753081009E-02 -1.061152015E-02  1.504691982E+01  4.153100029E-02  1.664005034E-02  5.084453896E-02 -2.645733887E+03 -4.197791992E+03  1.338218018E+03  1.811937988E-01  2.197366953E-02  1.998266019E-02  1.482446026E-02  3.004647046E-02  4.757967778E-03  1.440011989E-02 -8.151929826E-03
  5.000000000E-01  5.000000000E-01  7.933040261E-01  1.062700033E+00  9.905568957E-01 -6.216925010E-02 -1.125250012E-02 -6.251829211E-03  1.982958031E+01  7.394103706E-02  1.558209024E-02  5.821583048E-02 -4.197733887E+03 -4.197792969E+03 -2.676275879E+03  3.629867136E-01  2.645722032E-02  2.844095975E-02  8.661932312E-03  2.991154976E-02  4.469157197E-03  2.284727059E-02 -1.002382021E-02
  5.977680087E-01  5.977680087E-01  5.977680087E-01  1.035364985E+00  9.890798926E-01 -4.946738854E-02 -1.631679013E-02  7.197633968E-04  1.886514091E+01  5.770489946E-02  1.739219017E-02  5.502501875E-02 -4.307837891E+03 -4.307877930E+03  5.502501875E-02  2.838354111E-01  2.178210020E-02  2.207263932E-02  9.864622727E-03  2.661748044E-02  4.265252035E-03  1.658679917E-02 -8.529595099E-03
  7.933040261E-01  5.000000000E-01  5.000000000E-01  1.062700033E+00  9.825422764E-01 -5.647302046E-02 -2.016706951E-02  1.902263984E-02  2.171891022E+01  5.764266849E-02  1.995442063E-02  5.601467937E-02 -4.197750977E+03 -2.645754883E+03  1.338223022E+03  3.073256910E-01  1.691542938E-02  1.779430918E-02  6.107477006E-03  1.989441924E-02  3.568629967E-03  1.251300983E-02 -7.413030136E-03
  6.851354241E-01  2.335366011E-01  6.851354241E-01  9.966745973E-01  9.840239286E-01 -7.280281186E-02 -7.780536078E-03  1.189719979E-02  2.224998093E+01  7.038165629E-02  8.020431735E-03  5.367276073E-02 -6.846169922E+03 -2.333614990E+03 -2.016878052E+03  4.121362865E-01  9.588641115E-03  2.130882069E-02  3.233843017E-03  1.099725999E-02  1.805666019E-03  1.809982024E-02 -3.900755895E-03
  5.000000000E-01  0.000000000E+00  9.377266765E-01  1.062700033E+00  9.861050248E-01 -8.459427953E-02 -2.869141987E-03  7.784704212E-03  2.262221909E+01  8.473917097E-02  1.042668009E-04  5.120392144E-02 -4.961942871E+03  1.042668009E-04 -5.322058105E+03  5.164154768E-01 -3.965199867E-04  2.474551089E-02 -1.720578002E-04 -4.112632887E-04 -4.963331958E-05  2.350340039E-02  8.584201169E-06
  9.377266765E-01  0.000000000E+00  5.000000000E-01  1.062700033E+00  9.777967930E-01 -8.314169198E-02  3.240354126E-04  2.505737916E-02  2.430017090E+01  6.355837733E-02 -6.457878044E-05  5.049071833E-02 -4.961963867E+03 -6.457878044E-05  1.338218018E+03  4.342209995E-01 -2.846955031E-04  1.490294002E-02 -1.739458967E-04 -4.206165904E-04  2.792580926E-05  1.338515989E-02  9.816959937E-05
  2.940478921E-01  2.940478921E-01  9.187421203E-01  1.008471966E+00  9.995254278E-01 -7.370729744E-02 -1.253971015E-03 -4.723875027E-04  1.670723915E+01  7.946220785E-02  4.156358074E-03  4.090989009E-02 -3.714925049E+03 -3.715000000E+03 -6.945554199E+03  3.117510080E-01  1.037811954E-02  2.230649069E-02  3.975021187E-03  1.105036028E-02  2.115755109E-03  2.028569952E-02 -3.190859919E-03
  9.187421203E-01  2.940478921E-01  2.940478921E-01  1.008471966E+00  9.850180149E-01 -5.106684938E-02 -1.288894005E-02  1.559839025E-02  2.157263947E+01  3.474522009E-02  5.536044016E-03  4.879923910E-02 -3.714968994E+03 -1.189000000E+03  3.472845947E+03  2.196670026E-01  5.843387917E-03  1.026991010E-02  1.620754949E-03  5.392982159E-03  1.461280044E-03  8.113075979E-03 -2.037560102E-03
  9.377266765E-01  5.000000000E-01  0.000000000E+00  1.062700033E+00  9.905323982E-01 -4.926906899E-02 -2.792352997E-02 -1.536532945E-04  1.769980049E+01 -5.475651051E-05  1.800064929E-04  3.679994866E-02 -5.475651051E-05  1.800064929E-04  3.983979004E+03 -5.100294948E-04  4.256623797E-03  2.824153984E-03 -7.633714995E-05 -1.448547991E-04  1.601819997E-03  1.019297051E-03  3.346685844E-05
  1.000000000E+00  3.596265912E-01  0.000000000E+00  1.062700033E+00  9.871569276E-01 -3.142227978E-02 -1.214691997E-02 -2.262384951E-04  2.214562988E+01  9.086712816E-05 -1.794022974E-04  4.838892817E-02  9.086712816E-05 -1.794022974E-04  3.983990967E+03  5.049568717E-04  2.208411926E-03  5.845002830E-03 -1.511286973E-04 -2.487227903E-04  8.761137724E-04  5.637499038E-03  3.868808926E-05
  1.000000000E+00  0.000000000E+00  3.596265912E-01  1.062700033E+00  9.885079861E-01 -3.139416873E-02 -3.358421091E-04  3.244592994E-02  2.193551064E+01  3.949970007E-02 -2.608316136E-04  4.835950956E-02 -3.805925049E+03 -2.608316136E-04  2.615264893E+03  3.067569137E-01 -7.348397776E-05  5.729855970E-03 -1.060067007E-04 -2.063550055E-04  4.973293835E-05  5.526444875E-03  5.415275882E-05
  6.851354241E-01  6.851354241E-01  2.335366011E-01  9.966745973E-01  9.904534221E-01 -3.899785131E-02 -2.163876966E-02  1.793400967E-03  1.669952965E+01  2.230213955E-02  8.293701336E-03  4.433432966E-02 -2.333601074E+03 -2.333614990E+03  4.033908936E+03  1.084847003E-01  1.283679996E-02  1.140949037E-02  4.729349166E-03  1.122185029E-02  2.934804885E-03  8.104447275E-03 -3.471035045E-03
  5.000000000E-01  9.377266765E-01  0.000000000E+00  1.062700033E+00  9.938412905E-01 -2.196590044E-02 -1.993354969E-02 -2.191352978E-04  1.293595028E+01 -1.291428052E-04 -1.353443986E-05  3.693868965E-02 -1.291428052E-04 -1.353443986E-05  3.983979004E+03 -5.396936089E-03  1.057028957E-02  7.717949804E-03  1.183023996E-04  2.006308023E-05  2.251202939E-03  6.404026877E-03  1.017547984E-04
  2.940478921E-01  9.187421203E-01  2.940478921E-01  1.008471966E+00  9.993842840E-01 -2.294592001E-02 -1.645310037E-02 -1.149987988E-02  1.146990967E+01  1.955118030E-02  4.799566232E-03  3.288685903E-02 -1.188985962E+03 -3.714999023E+03  3.472830078E+03  6.474208087E-02  1.419514976E-02  1.021515019E-02  1.049926039E-02  1.478962041E-02  2.772504929E-03  8.296985179E-03 -4.555748892E-04
  3.596265912E-01  1.000000000E+00  0.000000000E+00  1.062700033E+00  1.004731059E+00 -1.565321907E-02 -2.215573937E-02 -8.521061973E-04  8.294117928E+00 -1.066265977E-04 -2.477646049E-04  3.073707037E-02 -1.066265977E-04 -2.477646049E-04  3.983972900E+03 -5.348105915E-03  1.157811005E-02  4.749807995E-03  1.375030988E-04  5.855062045E-05  3.961793147E-03  3.909212071E-03  7.343314064E-05
  1.020900011E+00  1.198754981E-01  1.198754981E-01  1.034880042E+00  9.858847857E-01 -2.145674080E-02 -4.402793944E-03  1.143287029E-02  2.297438049E+01  1.394492015E-02 -3.323573037E-04  5.342125148E-02 -1.478854980E+03 -1.736511993E+02  4.140350098E+03  1.084488034E-01  7.520163781E-04  7.305619773E-03 -1.272321970E-04 -2.395922929E-04  3.255741030E-04  7.049199194E-03  6.154242146E-05
  1.062700033E+00  0.000000000E+00  0.000000000E+00  1.062700033E+00  9.812237024E-01  2.359133912E-03 -2.697255013E-06  2.399463992E-04  2.520919991E+01 -5.615504051E-05 -6.009705248E-04  6.549979746E-02 -5.615504051E-05 -6.009705248E-04  3.984008057E+03  3.191382857E-04 -2.912333912E-06  1.093894988E-02 -1.240362035E-04 -2.684385108E-04 -3.129837978E-06  1.056056004E-02  9.773235797E-05
  1.198754981E-01  1.020900011E+00  1.198754981E-01  1.034880042E+00  1.007146955E+00 -1.590134017E-02 -2.295624092E-02 -7.179609034E-03  8.091842651E+00  4.554226995E-03  1.091684026E-04  2.154215984E-02 -1.736463013E+02 -1.478869019E+03  4.140317871E+03  1.010836009E-02  1.123739034E-02 -2.142627927E-04  6.189316045E-03  6.256271154E-03  2.216330031E-03 -3.837665136E-04  2.174719004E-03
  1.198754981E-01 -1.198754981E-01  1.020900011E+00  1.034880042E+00  1.008450031E+00 -8.071018010E-02 -6.298786961E-03 -3.959336784E-03  1.282089043E+01  9.484961629E-02  4.924198729E-04  3.227769956E-02 -1.478774048E+03  1.478869019E+03 -8.280559570E+03  2.011104971E-01 -2.631627023E-03  2.097726054E-02 -3.817561083E-04 -2.187702106E-03 -6.967324880E-04  2.110002935E-02  7.899784832E-04
  0.000000000E+00 -3.596265912E-01  1.000000000E+00  1.062700033E+00  1.010571957E+00 -8.305253834E-02 -1.538882963E-02  1.246798038E-02  1.256037998E+01  8.880610764E-02  1.404564013E-03  1.683316939E-02  8.880610764E-02  3.805966064E+03 -6.599142090E+03  1.097524986E-01 -7.258243859E-03  1.695133932E-02 -1.016458962E-03 -6.002196111E-03 -1.964394003E-03  1.702404022E-02  2.255233005E-03
  1.198754981E-01 -1.020900011E+00  1.198754981E-01  1.034880042E+00  1.007208943E+00 -1.605004072E-02  2.372558974E-02 -6.023257971E-03  8.090682983E+00  4.650576971E-03 -4.720005963E-04  2.165915072E-02 -1.736461945E+02  1.478868042E+03  4.140317871E+03  1.647727937E-02 -1.134373993E-02 -2.615094127E-04 -6.362421904E-03 -6.574853789E-03 -2.241174923E-03 -4.965518019E-04 -2.103626961E-03
  0.000000000E+00 -1.062700033E+00  0.000000000E+00  1.062700033E+00  1.011906981E+00 -1.645733975E-02  3.297507018E-02  7.106735138E-04  7.351930141E+00  2.868247066E-05 -2.014300990E-04  1.622037962E-02  2.868247066E-05 -2.014300990E-04  3.983958984E+03  8.544467273E-04 -1.097548008E-02 -6.173172966E-03 -1.875523012E-04 -1.549342996E-04 -2.328196075E-03 -6.681504194E-03 -4.244424053E-05
  0.000000000E+00 -1.000000000E+00  3.596265912E-01  1.062700033E+00  1.005764008E+00 -1.609244011E-02  1.753582060E-02 -1.877865009E-02  8.504293442E+00  1.313467976E-02 -8.781413198E-04  1.713109948E-02  1.313467976E-02  3.805964111E+03  2.615232910E+03  4.127617925E-02 -1.141356025E-02 -3.308359010E-04 -1.768512093E-02 -1.822314039E-02 -4.464845988E-04  2.699533070E-04 -6.012627855E-03
  3.596265912E-01 -1.000000000E+00  0.000000000E+00  1.062700033E+00  1.004729033E+00 -1.566727087E-02  2.218554914E-02  1.104576048E-03  8.294449806E+00  2.899916944E-05 -2.919762046E-04  3.073240072E-02  2.899916944E-05 -2.919762046E-04  3.983972900E+03  4.734396003E-03 -1.158167981E-02  4.748207051E-03 -2.000739041E-04 -2.917025122E-04 -3.963143099E-03  3.905720077E-03  8.283812349E-05
  1.020900011E+00 -1.198754981E-01  1.198754981E-01  1.034880042E+00  9.858822227E-01 -2.146198042E-02  4.163925070E-03  1.164002996E-02  2.297294998E+01  1.385698002E-02 -3.843356099E-04  5.342188105E-02 -1.478854980E+03  1.736504974E+02  4.140350098E+03  1.082876027E-01 -8.059819811E-04  7.307536900E-03 -9.679701179E-05 -2.091040951E-04 -2.923294960E-04  7.050517015E-03  7.077121700E-05
  1.000000000E+00 -3.596265912E-01  0.000000000E+00  1.062700033E+00  9.871494174E-01 -3.143715113E-02  1.214575022E-02  3.612145956E-04  2.214156914E+01 -1.584965066E-04 -3.267973079E-04  4.839072004E-02 -1.584965066E-04 -3.267973079E-04  3.983990967E+03  4.784622070E-05 -2.209607046E-03  5.850439891E-03 -6.482342724E-05 -1.622674026E-04 -8.760768105E-04  5.641235970E-03  6.485819176E-05
  2.940478921E-01 -2.940478921E-01  9.187421203E-01  1.008471966E+00  9.995747805E-01 -7.224114239E-02 -2.335120924E-03  2.894004108E-03  1.670877075E+01  7.936125994E-02 -4.052584060E-03  4.082090035E-02 -3.714925049E+03  3.715000000E+03 -6.945554199E+03  3.045940995E-01 -1.082860958E-02  2.221344039E-02 -4.125963897E-03 -1.145613007E-02 -2.225853968E-03  2.019557916E-02  3.197330981E-03
  0.000000000E+00 -5.000000000E-01  9.377266765E-01  1.062700033E+00  1.008473992E+00 -6.243484095E-02 -6.461441983E-03  8.684107102E-03  1.252293015E+01  6.022955850E-02  1.632366038E-04  1.458903030E-02  6.022955850E-02  4.962027832E+03 -5.322095215E+03  1.031332985E-01 -1.014949009E-02  1.519904006E-02 -7.883308455E-03 -9.669130668E-03 -2.990883077E-03  1.369849965E-02 -2.475667861E-04
  5.000000000E-01 -5.000000000E-01  7.933040261E-01  1.062700033E+00  9.906520844E-01 -6.020599976E-02  9.230907075E-03 -1.054025954E-03  1.982378960E+01  7.380492985E-02 -1.559055969E-02  5.826117098E-02 -4.197734863E+03  4.197792969E+03 -2.676275879E+03  3.535461128E-01 -2.707543038E-02  2.845266089E-02 -8.812043816E-03 -3.043138050E-02 -4.708625842E-03  2.280952968E-02  1.016534027E-02
  6.851354241E-01 -2.335366011E-01  6.851354241E-01  9.966745973E-01  9.841086268E-01 -7.264965028E-02  6.047660951E-03  1.303740032E-02  2.224855995E+01  7.034415007E-02 -8.029719815E-03  5.378805846E-02 -6.846169922E+03  2.333614990E+03 -2.016878052E+03  4.099861979E-01 -1.020510960E-02  2.140437998E-02 -3.484796965E-03 -1.167452987E-02 -1.906458987E-03  1.816207916E-02  4.036813974E-03
  7.933040261E-01 -5.000000000E-01  5.000000000E-01  1.062700033E+00  9.828230739E-01 -5.775675178E-02  2.070214041E-02  1.888363995E-02  2.171838951E+01  5.761231855E-02 -2.008387074E-02  5.648088083E-02 -4.197750977E+03  2.645754883E+03  1.338223999E+03  3.072268069E-01 -1.737239026E-02  1.820657961E-02 -6.227654871E-03 -2.035236917E-02 -3.723457921E-03  1.282698009E-02  7.615032140E-03
  5.977680087E-01 -5.977680087E-01  5.977680087E-01  1.035364985E+00  9.892160296E-01 -4.940176010E-02  1.641640067E-02  2.455007983E-03  1.886558914E+01  5.766680837E-02 -1.752281934E-02  5.536879972E-02 -4.307837891E+03  4.307877930E+03  5.536879972E-02  2.821660936E-01 -2.226833068E-02  2.218131907E-02 -9.941805154E-03 -2.701037936E-02 -4.516275134E-03  1.659110002E-02  8.729597554E-03
  5.000000000E-01 -7.933040261E-01  5.000000000E-01  1.062700033E+00  9.941728711E-01 -3.024251945E-02  1.931615919E-02 -1.046460029E-02  1.505457973E+01  4.158318043E-02 -1.689404063E-02  5.136435106E-02 -2.645733887E+03  4.197791016E+03  1.338218018E+03  1.857254952E-01 -2.235718071E-02  1.988470927E-02 -1.478572004E-02 -3.024739027E-02 -5.116739776E-03  1.413679961E-02  8.408416994E-03
  2.335366011E-01 -6.851354241E-01  6.851354241E-01  9.966745973E-01  9.993932843E-01 -4.524005949E-02  7.012555841E-03 -7.280664984E-03  1.418441010E+01  5.107763037E-02 -7.455739193E-03  3.405686095E-02 -2.333572021E+03  6.846232910E+03 -2.016897949E+03  1.659533978E-01 -1.714557968E-02  1.866775006E-02 -1.227322966E-02 -2.122922987E-02 -3.443578957E-03  1.550356019E-02  3.131963080E-03
  0.000000000E+00 -9.377266765E-01  5.000000000E-01  1.062700033E+00  1.001772046E+00 -2.807120048E-02  8.567566983E-03 -2.574275993E-02  1.050316048E+01  3.106476925E-02 -6.514618290E-04  1.945360005E-02  3.106476925E-02  4.962026855E+03  1.338187012E+03  5.857751891E-02 -1.171423029E-02  1.310659014E-02 -1.744180918E-02 -1.783489995E-02 -1.484720968E-03  1.243396010E-02 -3.591882996E-03
  2.940478921E-01 -9.187421203E-01  2.940478921E-01  1.008471966E+00  9.994400740E-01 -2.321274951E-02  1.766786911E-02 -1.069169026E-02  1.147031975E+01  1.961123012E-02 -5.115659907E-03  3.316925839E-02 -1.188985962E+03  3.714999023E+03  3.472830078E+03  7.177659124E-02 -1.441042032E-02  1.014003996E-02 -1.051632967E-02 -1.505777985E-02 -2.898408100E-03  8.125942200E-03  6.746458239E-04
  5.000000000E-01 -9.377266765E-01  0.000000000E+00  1.062700033E+00  9.938340783E-01 -2.190602012E-02  1.991418004E-02  3.646010009E-04  1.293616009E+01 -1.734038960E-04 -2.921773121E-04  3.693608940E-02 -1.734038960E-04 -2.921773121E-04  3.983979004E+03  4.829791840E-03 -1.055748016E-02  7.708420977E-03 -8.968901966E-05 -2.198344009E-04 -2.249085112E-03  6.399122998E-03  1.488660928E-04
  6.851354241E-01 -6.851354241E-01  2.335366011E-01  9.966745973E-01  9.905241132E-01 -3.935857117E-02  2.213482000E-02  1.986006973E-03  1.670039940E+01  2.225513943E-02 -8.459461853E-03  4.455507174E-02 -2.333601074E+03  2.333614990E+03  4.033908936E+03  1.126130968E-01 -1.301825047E-02  1.147750020E-02 -4.756513052E-03 -1.147782989E-02 -3.048266051E-03  8.116791956E-03  3.667969024E-03
  9.377266765E-01 -5.000000000E-01  0.000000000E+00  1.062700033E+00  9.905400872E-01 -4.919274896E-02  2.784476988E-02 -4.252040890E-05  1.769691086E+01 -1.995721977E-04 -1.632088970E-04  3.679709882E-02 -1.995721977E-04 -1.632088970E-04  3.983979004E+03  6.584802759E-04 -4.240341950E-03  2.823356073E-03  1.564450031E-05 -4.674843149E-05 -1.595566981E-03  1.027590013E-03  5.674130080E-05
  9.187421203E-01 -2.940478921E-01  2.940478921E-01  1.008471966E+00  9.850968122E-01 -5.141549930E-02  1.302228961E-02  1.568436064E-02  2.157123947E+01  3.466596082E-02 -5.776017904E-03  4.892972857E-02 -3.714968994E+03  1.188999023E+03  3.472845947E+03  2.197698951E-01 -6.098302081E-03  1.038630027E-02 -1.804925036E-03 -5.855715834E-03 -1.475663972E-03  8.203260601E-03  2.183977049E-03
 -1.198754981E-01 -1.198754981E-01  1.020900011E+00  1.034880042E+00  1.010758042E+00 -8.530824631E-02 -5.420247093E-03  1.111998968E-02  1.165931988E+01  9.220179915E-02  4.390300019E-04  6.513882894E-03  1.478961060E+03  1.478869019E+03 -8.280585938E+03 -7.559367921E-03 -2.561735921E-03  1.735951006E-02 -3.523924970E-04 -2.132652095E-03 -6.836871034E-04  1.732073911E-02  8.179862052E-04
 -1.198754981E-01 -1.020900011E+00  1.198754981E-01  1.034880042E+00  1.008126020E+00 -1.608520001E-02  1.997582987E-02 -6.625310984E-03  8.217441559E+00  4.649819806E-03 -3.371342900E-04  1.195217017E-02  1.736555023E+02  1.478868042E+03  4.140308105E+03  1.552077010E-02 -1.110411994E-02 -3.798468038E-03 -6.362059154E-03 -6.540346891E-03  2.905247093E-04 -2.982555889E-03 -2.154236892E-03
 -3.596265912E-01 -1.000000000E+00  0.000000000E+00  1.062700033E+00  1.007329941E+00 -1.576697081E-02  1.155234966E-02 -6.026655901E-04  8.653902054E+00  2.685258914E-05  9.046439664E-05  3.206297057E-03  2.685258914E-05  9.046439664E-05  3.983946045E+03  2.022026107E-03 -1.090218965E-02 -5.281555001E-03 -1.990441961E-04 -1.938524947E-04  3.216003999E-03 -3.143846057E-03 -6.067451977E-05